ITEM: TIMESTEP
0
ITEM: NUMBER OF ATOMS
              56
ITEM: BOX BOUNDS xy xz yz pp pp pp
     -4.72767835     12.16307462     -4.12299171
      0.00000000     16.22648829     -0.60468664
      0.00000000      4.18124527      6.31518098
ITEM: ATOMS id type xu yu zu
     1     1      2.61200316      6.01102476      1.27861638
     2     1      1.20836258      8.08038337      1.78187889
     3     1     -0.95579324      7.05784825      0.81201919
     4     1      0.44784196      4.98849514      0.30875029
     5     2      2.13810228      7.34666065      0.92334741
     6     2     -0.16654917      8.19872343      1.28442767
     7     2     -0.48189774      5.72222544      1.16728830
     8     2      1.82275909      4.87015717      0.80621443
     9     2      2.18171939      7.70155538     -0.44033044
    10     2     -0.68610022      9.48962363      1.05380393
    11     2     -0.52552023      5.36733621      2.53095975
    12     2      2.34231014      3.57924938      1.03683164
    13     3      2.79609878      6.95712782     -1.20731288
    14     3      1.62123197      8.74769635     -0.78177546
    15     3     -0.01863947     10.45203538      1.43714815
    16     3     -1.78543443      9.56196232      0.49885317
    17     3     -1.13990805      6.11175268      3.29793974
    18     3      0.03496414      4.32117865      2.87240872
    19     3      1.67485782      2.61684113      0.65348334
    20     3      3.44165278      3.50691420      1.59177833
    21     4      3.63516446      5.92067699      0.90262412
    22     4      2.69194963      5.97564037      2.36483653
    23     4      1.66340870      9.05091967      1.99468861
    24     4      1.15842140      7.56674961      2.74397147
    25     4     -1.03571748      7.09323416     -0.27420272
    26     4     -1.97894611      7.14819953      1.18800738
    27     4      0.49778852      5.50212340     -0.65333589
    28     4     -0.00719878      4.01795334      0.09594696
    29     1      6.88922740     11.07485302      1.90345488
    30     1      7.17530811      8.54059457      1.94071986
    31     1      6.32531472      8.30922433      4.36842880
    32     1      6.03929767     10.84348590      4.33117553
    33     2      7.72355653      9.88916667      2.08437631
    34     2      7.00785316      7.78062420      3.18419984
    35     2      5.49102469      9.49492679      4.18750398
    36     2      6.20678867     11.60348612      3.08772218
    37     2      8.88938438     10.03740298      2.86304427
    38     2      7.71072149      6.56596736      3.32608278
    39     2      4.32522896      9.34673493      3.40876900
    40     2      5.50384519     12.81810458      2.94582252
    41     3      9.23545417     11.18138216      3.16544946
    42     3      9.50654489      9.01482236      3.17704946
    43     3      8.29753390      6.12534999      2.33604399
    44     3      7.67165861      6.02003061      4.43159784
    45     3      3.97914681      8.20277442      3.10628074
    46     3      3.70810522     10.36933100      3.09473050
    47     3      4.91701897     13.25871636      3.93585247
    48     3      5.54285516     13.36400446      1.84028898
    49     4      7.52551067     11.85554189      1.47678194
    50     4      6.15515821     10.83812187      1.13364101
    51     4      7.79469968      8.01701218      1.20823318
    52     4      6.18906326      8.62316361      1.47981439
    53     4      7.05933492      8.54590401      5.13831785
    54     4      5.68899917      7.52852295      4.79502427
    55     4      7.02554180     10.76085545      4.79207572
    56     4      5.41993604     11.36705739      5.06369021
